1         1       0.000000000        2.712019288        0.041804860
1         2       0.000000000        6.168924635        0.413219626
1         3       0.000000000        5.237570175        0.303986525
1         4       0.000000000        9.463288972        1.542492015
1         5       0.000000000        8.108244956        0.967128424
1         6       0.000000000        9.010237253        2.933778467
1         7       0.000000000        6.811811376        1.299454241
1         8       0.000000000       10.146596390        3.165719344
1         9       0.000000000        6.576738832        0.895120514
1        10       0.000000000        9.404865393        2.522732508
1        11       0.000000000        5.988027828        0.575159784
1        12       0.000000000        8.617812913        2.182403560
1        13       0.000000000        5.459758657        0.535213934
1        14       0.000000000        6.798513749        2.052305517
1        15       0.000000000        4.379503014        0.501959512
1        16       0.000000000        4.880479417        1.656653246
1        17       0.000000000        2.434725693        0.337754440
1        18       0.000000000        2.681921794        0.992656490
1        19       0.000000000        1.002840489        0.132195135
1        20       0.000000000        1.252104568        0.386892279
1        21       0.000000000       46.536786636        4.995405347
1        22       0.000000000       13.269491907        1.625682376
1        23       0.000000000       17.431485931        0.858692731
1        24       0.000000000      106.004209997       13.511426046
1        25       0.000000000       36.536559885        4.727165015
1        26       0.000000000       42.394363475        2.096188470
1        27       0.000000000       23.404913385        2.110920385
1        28       0.000000000        6.177645349        0.636622372
1        29       0.000000000        7.986469799        0.371975414
1        30       0.000000000       83.047993964       10.626941084
1        31       0.000000000       29.600398654        3.738105012
1        32       0.000000000       33.346077610        1.609471153
1        33       0.000000000       10.804950312        0.767690829
1        34       0.000000000        2.744384682        0.207768336
1        35       0.000000000        3.461724543        0.136005647
1        36       0.000000000       57.932089958        7.270055923
1        37       0.000000000       21.362326586        2.548260350
1        38       0.000000000       22.850388635        1.056450697
1        39       0.000000000        5.106468608        0.302289198
1        40       0.000000000        1.377665431        0.069244314
1        41       0.000000000        1.795242539        0.052563040
1        42       0.000000000       34.918520171        4.136826554
1        43       0.000000000       13.574992590        1.412562500
1        44       0.000000000       12.993218870        0.560654704
1        45       0.000000000        2.885000870        0.160089397
1        46       0.000000000        0.973338251        0.027035290
1        47       0.000000000        1.334827988        0.028381787
1        48       0.000000000       18.836491494        1.914087856
1        49       0.000000000        7.875302435        0.618305342
1        50       0.000000000        6.122685118        0.233643468
1        51       0.000000000        2.295148225        0.121272233
1        52       0.000000000        0.876873463        0.016116744
1        53       0.000000000        1.228320907        0.022273142
1        54       0.000000000        9.127529026        0.772742477
1        55       0.000000000        4.385771281        0.229064753
1        56       0.000000000        2.836313250        0.080319166
1        57       0.000000000        2.179735065        0.108373973
1        58       0.000000000        0.855466126        0.012617811
1        59       0.000000000        1.201250396        0.019984000
1        60       0.000000000        4.296043918        0.359765113
1        61       0.000000000        2.615493104        0.097042829
1        62       0.000000000        1.648630295        0.027951139
1        63       0.000000000        2.161600420        0.101523193
1        64       0.000000000        0.853678458        0.010728217
1        65       0.000000000        1.198447285        0.018624408
1        66       0.000000000        3.441430130        0.250318173
1        67       0.000000000        2.234888644        0.064801020
1        68       0.000000000        1.496504637        0.015057203
2         1       0.000000000        3.060397915        0.039962524
2         2       0.000000000        4.777769066        0.320808482
2         3       0.000000000        6.059459938        0.290589868
2         4       0.000000000        7.599157546        1.420897992
2         5       0.000000000        8.140366365        0.924507167
2         6       0.000000000        8.490885081        2.865843754
2         7       0.000000000        8.306618662        1.242187416
2         8       0.000000000        7.808521548        2.850572969
2         9       0.000000000        7.609056526        0.855672638
2        10       0.000000000        8.128486710        2.062002864
2        11       0.000000000        6.605809369        0.549812548
2        12       0.000000000        8.088601234        1.742114866
2        13       0.000000000        6.031465526        0.511627107
2        14       0.000000000        6.678136911        1.666983114
2        15       0.000000000        4.235980328        0.479838204
2        16       0.000000000        4.476792742        1.366422529
2        17       0.000000000        2.317489135        0.322869634
2        18       0.000000000        2.560793575        0.820696266
2        19       0.000000000        1.018113953        0.126369308
2        20       0.000000000        1.030160483        0.329840298
2        21       0.000000000       20.429604833        0.885197514
2        22       0.000000000       15.426555902        1.449553179
2        23       0.000000000       25.898985872        3.013596871
2        24       0.000000000       52.445650532        2.151241492
2        25       0.000000000       36.490047936        4.199766558
2        26       0.000000000       65.564013681        8.247325212
2        27       0.000000000        9.751584758        0.382328690
2        28       0.000000000        6.667913754        0.570431486
2        29       0.000000000       12.557091740        1.218643132
2        30       0.000000000       41.396516309        1.648372668
2        31       0.000000000       29.603211152        3.320644866
2        32       0.000000000       51.880589049        6.452371473
2        33       0.000000000        4.134243152        0.139003165
2        34       0.000000000        2.988998485        0.187359245
2        35       0.000000000        5.584708446        0.410261331
2        36       0.000000000       28.604833986        1.077292307
2        37       0.000000000       21.372687549        2.265022737
2        38       0.000000000       36.128689059        4.335451565
2        39       0.000000000        1.990976806        0.053942636
2        40       0.000000000        1.296968347        0.062275819
2        41       0.000000000        2.596201153        0.148220297
2        42       0.000000000       16.571354724        0.568746216
2        43       0.000000000       13.625308029        1.257936903
2        44       0.000000000       21.396220864        2.361866294
2        45       0.000000000        1.376949502        0.028974833
2        46       0.000000000        0.946278537        0.023987063
2        47       0.000000000        1.510585647        0.075497390
2        48       0.000000000        8.808921549        0.237049722
2        49       0.000000000        7.981449522        0.552112476
2        50       0.000000000       10.633423381        1.010938713
2        51       0.000000000        1.362094968        0.022553746
2        52       0.000000000        0.810815868        0.013964831
2        53       0.000000000        1.288019215        0.058007173
2        54       0.000000000        4.124957558        0.082645165
2        55       0.000000000        4.385771440        0.204151167
2        56       0.000000000        4.764800350        0.369847231
2        57       0.000000000        1.362030985        0.020158094
2        58       0.000000000        0.770985715        0.010711467
2        59       0.000000000        1.287046159        0.052079202
2        60       0.000000000        2.469591964        0.029454319
2        61       0.000000000        2.615493104        0.086401487
2        62       0.000000000        2.898140874        0.164273270
2        63       0.000000000        1.362030980        0.018728295
2        64       0.000000000        0.768909378        0.009017542
2        65       0.000000000        1.286887858        0.048808121
2        66       0.000000000        2.172662291        0.016053236
2        67       0.000000000        2.197020920        0.057820962
2        68       0.000000000        2.499521513        0.117893348
      -0.128004900       -0.000187116
